 Gaussian 16, Revision A.03,
 Gaussian 16:  ES64L-G16RevA.03 25-Dec-2016

 -------------------
 #p opt b3lyp/3-21g*
 -------------------

 ----------------------------------------------
 Gaussian optimization calculation on oligomer8
 ----------------------------------------------
 Symbolic Z-matrix:
 Charge =  0 Multiplicity = 1

 SCF Done:  E(RB3LYP) =  -5200.42603148     A.U. after   18 cycles
 SCF Done:  E(RB3LYP) =  -5200.46040431     A.U. after   15 cycles
 SCF Done:  E(RB3LYP) =  -5200.47702707     A.U. after   13 cycles
 SCF Done:  E(RB3LYP) =  -5200.48129102     A.U. after   15 cycles
 SCF Done:  E(RB3LYP) =  -5200.48308961     A.U. after   15 cycles
 SCF Done:  E(RB3LYP) =  -5200.48380284     A.U. after   15 cycles
 SCF Done:  E(RB3LYP) =  -5200.48402065     A.U. after   12 cycles
 SCF Done:  E(RB3LYP) =  -5200.48405958     A.U. after   12 cycles
 SCF Done:  E(RB3LYP) =  -5200.48408968     A.U. after   10 cycles
 SCF Done:  E(RB3LYP) =  -5200.48409390     A.U. after   10 cycles
 SCF Done:  E(RB3LYP) =  -5200.48409552     A.U. after    9 cycles
 SCF Done:  E(RB3LYP) =  -5200.48409603     A.U. after    9 cycles
 SCF Done:  E(RB3LYP) =  -5200.48409626     A.U. after    8 cycles
 SCF Done:  E(RB3LYP) =  -5200.48409629     A.U. after    7 cycles
 SCF Done:  E(RB3LYP) =  -5200.48409630     A.U. after    6 cycles
 Optimization completed.
    -- Stationary point found.

                         Standard orientation:
 ---------------------------------------------------------------------
 Center     Atomic      Atomic             Coordinates (Angstroms)
 Number     Number       Type             X           Y           Z
 ---------------------------------------------------------------------
      1          6           0      -17.182783   -0.125687    0.000969
      2          6           0      -17.871917    1.132583    0.000034
      3          6           0      -17.987151   -1.255352    0.002214
      4          7           0      -17.288194    2.345289   -0.001015
      5          7           0      -19.804381    2.459899   -0.000684
      6         16           0      -18.500833    3.473029   -0.001690
      7          1           0      -19.961229   -2.124301    0.003322
      8          1           0      -17.526098   -2.234312    0.003198
      9          6           0      -19.409372   -1.191817    0.002363
     10          6           0      -19.325030    1.194472    0.000240
     11          6           0      -20.088846    0.000680    0.001390
     12          1           0      -21.168329    0.054162    0.001488
     13          6           0       -0.422249   -0.126005   -0.000518
     14          6           0       -1.182027    1.023139   -0.000481
     15         16           0       -1.444995   -1.576727   -0.000412
     16          6           0       -7.301581    0.995371   -0.000106
     17          6           0       -6.691169   -0.283044   -0.000102
     18          6           0       -7.463203   -1.452370   -0.000006
     19          6           0       -8.845676   -1.323900    0.000082
     20          6           0       -9.455950   -0.045492    0.000074
     21          6           0       -8.684030    1.123788   -0.000021
     22          6           0       -9.904920   -2.434086    0.000196
     23          6           0      -11.203830   -1.616579    0.000264
     24          6           0      -10.913897   -0.219002    0.000183
     25          6           0       -6.242589    2.105675   -0.000180
     26          6           0       -4.943649    1.288357   -0.000256
     27          6           0       -5.233446   -0.109343   -0.000203
     28          6           0      -12.504642   -2.070377    0.000389
     29          6           0      -13.555181   -1.122431    0.000450
     30          6           0      -13.251475    0.269460    0.000366
     31          6           0      -11.930696    0.729747    0.000222
     32          6           0       -3.643120    1.742498   -0.000347
     33          6           0       -2.592018    0.794795   -0.000382
     34          6           0       -2.895788   -0.597510   -0.000341
     35          6           0       -4.216098   -1.057984   -0.000252
     36          6           0       -9.796163   -3.302954    1.277848
     37          6           0       -9.796354   -3.303021   -1.277432
     38          6           0       -6.351243    2.974518    1.277521
     39          6           0       -6.351415    2.974598   -1.277792
     40          1           0       -9.156031    2.100535   -0.000022
     41          1           0       -6.991229   -2.429137   -0.000000
     42          1           0       -3.413725    2.802845   -0.000408
     43          1           0       -4.436669   -2.119253   -0.000213
     44          1           0      -12.734246   -3.130702    0.000453
     45          1           0      -11.709995    1.790990    0.000138
     46          1           0       -8.834331   -3.827875    1.298636
     47          1           0      -10.598820   -4.048908    1.297408
     48          1           0       -9.875534   -2.675097    2.169778
     49          1           0       -9.875861   -2.675208   -2.169380
     50          1           0      -10.599015   -4.048975   -1.296833
     51          1           0       -8.834526   -3.827943   -1.298336
     52          1           0       -7.313316    3.499375   -1.298536
     53          1           0       -6.271940    2.346838   -2.169781
     54          1           0       -5.548883    3.720673   -1.297276
     55          1           0       -7.313145    3.499287    1.298431
     56          1           0       -5.548706    3.720591    1.296943
     57          1           0       -6.271641    2.346689    2.169449
     58          1           0      -15.391834   -2.343915    0.000509
     59          1           0       -0.757106    2.017371   -0.000461
     60         16           0      -14.701621    1.249028    0.000338
     61          6           0      -14.966394   -1.349876    0.000592
     62          6           0      -15.724065   -0.201248    0.000645
     63          6           0        3.975961   -0.310691   -0.000564
     64          6           0        3.189261   -1.513370   -0.000573
     65          6           0        3.249240    0.873973   -0.000613
     66          7           0        3.650283   -2.780450   -0.000564
     67          7           0        1.146623   -2.657287   -0.000575
     68         16           0        2.345547   -3.793620   -0.000585
     69          1           0        1.379403    1.911348   -0.000665
     70          1           0        3.785417    1.815860   -0.000645
     71          6           0        1.839119    0.931806   -0.000624
     72          6           0        1.732743   -1.446817   -0.000570
     73          6           0        1.031807   -0.198096   -0.000589
     74          6           0       20.674341    0.838024    0.000628
     75          6           0       19.869603    1.934229    0.000782
     76         16           0       19.784614   -0.669274    0.000303
     77          6           0       13.750481    1.468283    0.000359
     78          6           0       14.448069    0.235714    0.000175
     79          6           0       13.760008   -0.984261   -0.000070
     80          6           0       12.371552   -0.952641   -0.000129
     81          6           0       11.673918    0.279907    0.000049
     82          6           0       12.362297    1.500182    0.000298
     83          6           0       11.392298   -2.133882   -0.000356
     84          6           0       10.039855   -1.408686   -0.000322
     85          6           0       10.231810    0.004108   -0.000074
     86          6           0       14.729952    2.649519    0.000608
     87          6           0       16.082530    1.924323    0.000565
     88          6           0       15.891603    0.512297    0.000299
     89          6           0        8.772861   -1.952559   -0.000484
     90          6           0        7.657596   -1.083774   -0.000398
     91          6           0        7.868405    0.326013   -0.000163
     92          6           0        9.150163    0.880591    0.000001
     93          6           0       17.349998    2.469667    0.000737
     94          6           0       18.464372    1.602926    0.000642
     95          6           0       18.256467    0.193553    0.000373
     96          6           0       16.973038   -0.361978    0.000200
     97          6           0       11.560963   -2.993072    1.277351
     98          6           0       11.561116   -2.992777   -1.278223
     99          6           0       14.560902    3.508359    1.278446
    100          6           0       14.561054    3.508732   -1.277009
    101          1           0       11.823699    2.441933    0.000442
    102          1           0       14.298660   -1.925951   -0.000208
    103          1           0       17.503058    3.543642    0.000941
    104          1           0       16.828738   -1.436103   -0.000003
    105          1           0        8.616708   -3.025892   -0.000679
    106          1           0        9.296202    1.954369    0.000179
    107          1           0       12.557180   -3.449328    1.298027
    108          1           0       10.812488   -3.793284    1.296840
    109          1           0       11.437935   -2.372366    2.169335
    110          1           0       11.438200   -2.371879   -2.170089
    111          1           0       10.812643   -3.792987   -1.297987
    112          1           0       12.557331   -3.449038   -1.298880
    113          1           0       13.564880    3.965152   -1.297771
    114          1           0       14.684037    2.887923   -2.168930
    115          1           0       15.309602    4.308927   -1.296638
    116          1           0       13.564728    3.964779    1.299219
    117          1           0       15.309448    4.308547    1.298398
    118          1           0       14.683774    2.887296    2.170206
    119          1           0        5.881729   -2.429227   -0.000727
    120          1           0       20.240397    2.950065    0.000987
    121         16           0        6.346627    1.191537   -0.000130
    122          6           0        6.265401   -1.420601   -0.000556
    123          6           0        5.428001   -0.331266   -0.000460
    124          1           0       21.753364    0.820749    0.000686
 ---------------------------------------------------------------------

 The electronic state is 1-A.
 Alpha  occ. eigenvalues --  -88.47346 -88.46854 -88.40123 -88.39910 -88.39776
 Alpha  occ. eigenvalues --  -88.39741 -14.30361 -14.30211 -14.29951 -14.29570
 Alpha  occ. eigenvalues --  -10.20125 -10.19933 -10.19557 -10.19299 -10.17408
 Alpha  occ. eigenvalues --  -10.17379 -10.17318 -10.17268 -10.17205 -10.17195
 Alpha  occ. eigenvalues --  -10.16816 -10.16502 -10.16063 -10.16023 -10.15882
 Alpha  occ. eigenvalues --  -10.15531 -10.15448 -10.15395 -10.15303 -10.15045
 Alpha  occ. eigenvalues --  -10.14988 -10.14964 -10.14903 -10.14894 -10.14636
 Alpha  occ. eigenvalues --  -10.14575 -10.14497 -10.14468 -10.14418 -10.14213
 Alpha  occ. eigenvalues --  -10.14191 -10.14189 -10.14170 -10.14106 -10.14085
 Alpha  occ. eigenvalues --  -10.14043 -10.13994 -10.13987 -10.13936 -10.13917
 Alpha  occ. eigenvalues --  -10.13880 -10.13861 -10.13748 -10.13723 -10.13690
 Alpha  occ. eigenvalues --  -10.13655 -10.13648 -10.13627 -10.13625 -10.13610
 Alpha  occ. eigenvalues --  -10.13609 -10.13599 -10.13508 -10.13478 -10.13469
 Alpha  occ. eigenvalues --  -10.13442 -10.13405 -10.13360 -10.13337 -10.13319
 Alpha  occ. eigenvalues --  -10.11697 -10.11686 -10.11661 -10.11650 -10.11631
 Alpha  occ. eigenvalues --  -10.11620 -10.11595 -10.11584  -8.02029  -8.01564
 Alpha  occ. eigenvalues --   -7.95027  -7.94975  -7.94541  -7.94507  -5.98052
 Alpha  occ. eigenvalues --   -5.97576  -5.97438  -5.97049  -5.96961  -5.96597
 Alpha  occ. eigenvalues --   -5.90981  -5.90881  -5.90596  -5.90504  -5.90499
 Alpha  occ. eigenvalues --   -5.90468  -5.90095  -5.90059  -5.89982  -5.89947
 Alpha  occ. eigenvalues --   -5.89514  -5.89482  -1.04333  -1.03758  -0.91829
 Alpha  occ. eigenvalues --   -0.91226  -0.90907  -0.90681  -0.90366  -0.90122
 Alpha  occ. eigenvalues --   -0.89337  -0.88959  -0.88251  -0.87681  -0.87146
 Alpha  occ. eigenvalues --   -0.86727  -0.83665  -0.83216  -0.82048  -0.81545
 Alpha  occ. eigenvalues --   -0.80656  -0.80411  -0.79451  -0.78963  -0.78364
 Alpha  occ. eigenvalues --   -0.78167  -0.77922  -0.77543  -0.77198  -0.77012
 Alpha  occ. eigenvalues --   -0.76649  -0.76074  -0.74397  -0.73805  -0.73725
 Alpha  occ. eigenvalues --   -0.73358  -0.71695  -0.71544  -0.71448  -0.71345
 Alpha  occ. eigenvalues --   -0.70824  -0.69584  -0.69063  -0.69053  -0.68997
 Alpha  occ. eigenvalues --   -0.68986  -0.68163  -0.66955  -0.66430  -0.66066
 Alpha  occ. eigenvalues --   -0.64148  -0.63989  -0.63617  -0.63209  -0.62828
 Alpha  occ. eigenvalues --   -0.62498  -0.61401  -0.61265  -0.60338  -0.59898
 Alpha  occ. eigenvalues --   -0.58984  -0.58871  -0.58242  -0.57956  -0.57839
 Alpha  occ. eigenvalues --   -0.57605  -0.56793  -0.56298  -0.55244  -0.54890
 Alpha  occ. eigenvalues --   -0.54577  -0.54200  -0.52541  -0.52442  -0.52060
 Alpha  occ. eigenvalues --   -0.51982  -0.51751  -0.51305  -0.51223  -0.50760
 Alpha  occ. eigenvalues --   -0.50088  -0.50045  -0.49433  -0.49245  -0.48791
 Alpha  occ. eigenvalues --   -0.47854  -0.47200  -0.46948  -0.46698  -0.46521
 Alpha  occ. eigenvalues --   -0.46411  -0.46129  -0.45847  -0.45406  -0.45223
 Alpha  occ. eigenvalues --   -0.45152  -0.45076  -0.44875  -0.44768  -0.44583
 Alpha  occ. eigenvalues --   -0.44149  -0.44062  -0.43821  -0.43624  -0.43446
 Alpha  occ. eigenvalues --   -0.43379  -0.43297  -0.43205  -0.43175  -0.42513
 Alpha  occ. eigenvalues --   -0.42297  -0.42137  -0.41718  -0.41542  -0.41444
 Alpha  occ. eigenvalues --   -0.41273  -0.41151  -0.40950  -0.40829  -0.40652
 Alpha  occ. eigenvalues --   -0.40596  -0.40379  -0.40267  -0.40064  -0.39867
 Alpha  occ. eigenvalues --   -0.39499  -0.39470  -0.39455  -0.39275  -0.39262
 Alpha  occ. eigenvalues --   -0.39210  -0.38792  -0.38263  -0.38036  -0.37728
 Alpha  occ. eigenvalues --   -0.37372  -0.37158  -0.36906  -0.36722  -0.36641
 Alpha  occ. eigenvalues --   -0.36610  -0.36273  -0.35999  -0.35700  -0.35582
 Alpha  occ. eigenvalues --   -0.35411  -0.35254  -0.35062  -0.34989  -0.34651
 Alpha  occ. eigenvalues --   -0.34646  -0.34412  -0.34337  -0.33822  -0.33753
 Alpha  occ. eigenvalues --   -0.33505  -0.32981  -0.32869  -0.32680  -0.32472
 Alpha  occ. eigenvalues --   -0.32372  -0.32153  -0.32060  -0.31991  -0.31866
 Alpha  occ. eigenvalues --   -0.31772  -0.31706  -0.29522  -0.29196  -0.29128
 Alpha  occ. eigenvalues --   -0.28871  -0.28785  -0.28681  -0.28462  -0.28038
 Alpha  occ. eigenvalues --   -0.27671  -0.27426  -0.26226  -0.25033  -0.24810
 Alpha  occ. eigenvalues --   -0.24487  -0.23209  -0.22576  -0.22519  -0.22306
 Alpha  occ. eigenvalues --   -0.22041  -0.20949  -0.19642  -0.18499
 Alpha virt. eigenvalues --   -0.10372  -0.09578  -0.05749  -0.05324  -0.03699
 Alpha virt. eigenvalues --   -0.02455  -0.01113  -0.00963  -0.00775  -0.00406
 Alpha virt. eigenvalues --   -0.00180   0.00161   0.00168   0.00523   0.00608

 Mulliken charges:
               1
     1  C    0.023936
     2  C    0.217601
     3  C   -0.196207
     4  N   -0.604973
     5  N   -0.582151
     6  S    0.605825
     7  H    0.202671
     8  H    0.197618
     9  C   -0.178757
    10  C    0.234178
    11  C   -0.155134
    12  H    0.212028
    13  C   -0.235021
    14  C   -0.180211
    15  S    0.487834
    16  C    0.134733
    17  C    0.034950
    18  C   -0.261762
    19  C    0.134614
    20  C    0.035063
    21  C   -0.261773
    22  C   -0.316932
    23  C    0.127944
    24  C    0.041010
    25  C   -0.317014
    26  C    0.128040
    27  C    0.041041
    28  C   -0.243559
    29  C    0.026438
    30  C   -0.245312
    31  C   -0.249781
    32  C   -0.243238
    33  C    0.026689
    34  C   -0.244819
    35  C   -0.249942
    36  C   -0.493763
    37  C   -0.493761
    38  C   -0.493784
    39  C   -0.493793
    40  H    0.176429
    41  H    0.176230
    42  H    0.177325
    43  H    0.189441
    44  H    0.176884
    45  H    0.189601
    46  H    0.186661
    47  H    0.185853
    48  H    0.206525
    49  H    0.206526
    50  H    0.185853
    51  H    0.186661
    52  H    0.186810
    53  H    0.206505
    54  H    0.186055
    55  H    0.186809
    56  H    0.186055
    57  H    0.206506
    58  H    0.188786
    59  H    0.189338
    60  S    0.489583
    61  C   -0.180345
    62  C   -0.235031
    63  C    0.035360
    64  C    0.246015
    65  C   -0.207642
    66  N   -0.615783
    67  N   -0.606251
    68  S    0.613682
    69  H    0.199956
    70  H    0.214069
    71  C   -0.188469
    72  C    0.233506
    73  C    0.024390
    74  C   -0.423255
    75  C   -0.173657
    76  S    0.407649
    77  C    0.134303
    78  C    0.035972
    79  C   -0.262459
    80  C    0.135120
    81  C    0.034832
    82  C   -0.261739
    83  C   -0.317311
    84  C    0.126880
    85  C    0.041455
    86  C   -0.316955
    87  C    0.127892
    88  C    0.038457
    89  C   -0.239670
    90  C    0.022981
    91  C   -0.227524
    92  C   -0.250646
    93  C   -0.245121
    94  C    0.021969
    95  C   -0.225134
    96  C   -0.244456
    97  C   -0.493992
    98  C   -0.494001
    99  C   -0.493839
   100  C   -0.493833
   101  H    0.175543
   102  H    0.175846
   103  H    0.179034
   104  H    0.189334
   105  H    0.182852
   106  H    0.189587
   107  H    0.186732
   108  H    0.187392
   109  H    0.206507
   110  H    0.206507
   111  H    0.187392
   112  H    0.186733
   113  H    0.186274
   114  H    0.206500
   115  H    0.186512
   116  H    0.186275
   117  H    0.186512
   118  H    0.206500
   119  H    0.233104
   120  H    0.195083
   121  S    0.425365
   122  C   -0.192198
   123  C   -0.233575
   124  H    0.221854
 Sum of Mulliken charges =  -0.00000

 Dipole moment (field-independent basis, Debye):
    X=              0.6650    Y=             -0.4606    Z=              0.0014  Tot=              0.8089
 Quadrupole moment (field-independent basis, Debye-Ang):
   XX=           -431.6670   YY=           -438.3329   ZZ=           -515.3381
   XY=             49.4978   XZ=             -0.0226   YZ=             -0.0047

 Normal termination of Gaussian 16 at Tue Oct 10 21:19:09 2023.
