 Gaussian 16, Revision A.03,
 Gaussian 16:  ES64L-G16RevA.03 25-Dec-2016

 -------------------
 #p opt b3lyp/3-21g*
 -------------------

 ----------------------------------------------
 Gaussian optimization calculation on oligomer7
 ----------------------------------------------
 Symbolic Z-matrix:
 Charge =  0 Multiplicity = 1

 SCF Done:  E(RB3LYP) =  -5200.43472004     A.U. after   21 cycles
 SCF Done:  E(RB3LYP) =  -5200.46479429     A.U. after   15 cycles
 SCF Done:  E(RB3LYP) =  -5200.47851878     A.U. after   13 cycles
 SCF Done:  E(RB3LYP) =  -5200.48138173     A.U. after   14 cycles
 SCF Done:  E(RB3LYP) =  -5200.48239708     A.U. after   15 cycles
 SCF Done:  E(RB3LYP) =  -5200.48278750     A.U. after   15 cycles
 SCF Done:  E(RB3LYP) =  -5200.48288694     A.U. after   12 cycles
 SCF Done:  E(RB3LYP) =  -5200.48291639     A.U. after   11 cycles
 SCF Done:  E(RB3LYP) =  -5200.48292468     A.U. after   10 cycles
 SCF Done:  E(RB3LYP) =  -5200.48292718     A.U. after    8 cycles
 SCF Done:  E(RB3LYP) =  -5200.48292780     A.U. after    9 cycles
 SCF Done:  E(RB3LYP) =  -5200.48292813     A.U. after    9 cycles
 SCF Done:  E(RB3LYP) =  -5200.48292828     A.U. after    9 cycles
 SCF Done:  E(RB3LYP) =  -5200.48292832     A.U. after    7 cycles
 SCF Done:  E(RB3LYP) =  -5200.48292833     A.U. after    7 cycles
 Optimization completed.
    -- Stationary point found.

                         Standard orientation:
 ---------------------------------------------------------------------
 Center     Atomic      Atomic             Coordinates (Angstroms)
 Number     Number       Type             X           Y           Z
 ---------------------------------------------------------------------
      1          6           0      -17.174254    0.606977   -0.000381
      2          6           0      -17.932868   -0.610674   -0.000039
      3          6           0      -17.913997    1.779976   -0.000913
      4          7           0      -17.418086   -1.854210    0.000379
      5          7           0      -19.936756   -1.827491    0.000143
      6         16           0      -18.692074   -2.912145    0.000572
      7          1           0      -19.836238    2.758273   -0.001412
      8          1           0      -17.398804    2.731562   -0.001304
      9          6           0      -19.337543    1.796309   -0.001020
     10          6           0      -19.387171   -0.590950   -0.000194
     11          6           0      -20.082830    0.643800   -0.000672
     12          1           0      -21.163614    0.650943   -0.000739
     13          6           0       -0.439986   -0.329814    0.000169
     14          6           0       -1.262492   -1.434974    0.000069
     15         16           0       -1.380121    1.175705    0.000215
     16          6           0       -7.371076   -1.065412   -0.000067
     17          6           0       -6.690182    0.176873   -0.000005
     18          6           0       -7.395670    1.387506    0.000021
     19          6           0       -8.783152    1.336402   -0.000012
     20          6           0       -9.463962    0.094120   -0.000072
     21          6           0       -8.758559   -1.116468   -0.000100
     22          6           0       -9.778591    2.504149   -0.000010
     23          6           0      -11.121180    1.760559   -0.000055
     24          6           0      -10.909922    0.348913   -0.000101
     25          6           0       -6.375759   -2.233204   -0.000077
     26          6           0       -5.033167   -1.489685   -0.000033
     27          6           0       -5.244494   -0.077977    0.000023
     28          6           0      -12.394557    2.286427   -0.000058
     29          6           0      -13.496487    1.398768   -0.000116
     30          6           0      -13.271225   -0.007926   -0.000170
     31          6           0      -11.978263   -0.541431   -0.000157
     32          6           0       -3.759990   -2.015676   -0.000033
     33          6           0       -2.657534   -1.128202    0.000021
     34          6           0       -2.883243    0.278957    0.000097
     35          6           0       -4.175750    0.812403    0.000101
     36          6           0       -9.621146    3.365396   -1.277708
     37          6           0       -9.621199    3.365384    1.277695
     38          6           0       -6.533153   -3.094417   -1.277800
     39          6           0       -6.533196   -3.094445    1.277629
     40          1           0       -9.284345   -2.065373   -0.000148
     41          1           0       -6.869929    2.336440    0.000068
     42          1           0       -3.590075   -3.087171   -0.000047
     43          1           0       -4.336740    1.884319    0.000162
     44          1           0      -12.564581    3.357922   -0.000029
     45          1           0      -11.817308   -1.613366   -0.000180
     46          1           0       -8.631164    3.835067   -1.298578
     47          1           0      -10.380346    4.155518   -1.297358
     48          1           0       -9.735882    2.742917   -2.169565
     49          1           0       -9.735979    2.742905    2.169545
     50          1           0      -10.380402    4.155507    1.297313
     51          1           0       -8.631222    3.835061    1.298614
     52          1           0       -7.523231   -3.563982    1.298500
     53          1           0       -6.418390   -2.471997    2.169496
     54          1           0       -5.774097   -3.884666    1.297248
     55          1           0       -7.523185   -3.563954   -1.298720
     56          1           0       -5.774054   -3.884640   -1.297401
     57          1           0       -6.418307   -2.471957   -2.169654
     58          1           0      -15.261720    2.721250   -0.000041
     59          1           0       -0.893598   -2.451328   -0.000035
     60         16           0      -14.774007   -0.904699   -0.000177
     61          6           0      -14.892718    1.704930   -0.000158
     62          6           0      -15.713587    0.600600   -0.000268
     63          6           0        3.960915   -0.385283    0.000277
     64          6           0        3.235385    0.847898    0.000504
     65          6           0        3.173985   -1.532204   -0.000019
     66          7           0        3.782987    2.077534    0.000713
     67          7           0        1.275958    2.119816    0.000673
     68         16           0        2.547652    3.175959    0.000888
     69          1           0        1.248934   -2.460748   -0.000282
     70          1           0        3.655616   -2.501314   -0.000270
     71          6           0        1.762940   -1.508405   -0.000043
     72          6           0        1.781786    0.872410    0.000451
     73          6           0        1.015136   -0.335612    0.000206
     74          6           0       20.696857   -0.005727   -0.000481
     75          6           0       19.945319    1.127600   -0.000456
     76         16           0       19.736113   -1.468855   -0.000401
     77          6           0       13.810809    0.954543   -0.000111
     78          6           0       14.448762   -0.309912   -0.000123
     79          6           0       13.703075   -1.495537   -0.000068
     80          6           0       12.317768   -1.397552   -0.000001
     81          6           0       11.679533   -0.133167    0.000015
     82          6           0       12.425722    1.052718   -0.000042
     83          6           0       11.283551   -2.531016    0.000034
     84          6           0        9.966823   -1.742597    0.000133
     85          6           0       10.225733   -0.338889    0.000097
     86          6           0       14.845680    2.087539   -0.000170
     87          6           0       16.162067    1.298551   -0.000237
     88          6           0       15.903855   -0.102736   -0.000200
     89          6           0        8.676659   -2.225408    0.000213
     90          6           0        7.604749   -1.301281    0.000252
     91          6           0        7.877849    0.097406    0.000211
     92          6           0        9.187704    0.586973    0.000138
     93          6           0       17.454115    1.782737   -0.000321
     94          6           0       18.525850    0.863776   -0.000368
     95          6           0       18.250838   -0.534030   -0.000329
     96          6           0       16.942340   -1.027647   -0.000246
     97          6           0       11.411352   -3.397125   -1.277720
     98          6           0       11.411533   -3.397316    1.277614
     99          6           0       14.718221    2.953887   -1.277811
    100          6           0       14.718367    2.953855    1.277515
    101          1           0       11.932573    2.018980   -0.000033
    102          1           0       14.196115   -2.461885   -0.000080
    103          1           0       17.658156    2.848207   -0.000351
    104          1           0       16.746934   -2.093664   -0.000219
    105          1           0        8.470805   -3.290592    0.000242
    106          1           0        9.384720    1.652853    0.000110
    107          1           0       12.384707   -3.900359   -1.298746
    108          1           0       10.625594   -4.160862   -1.297280
    109          1           0       11.317823   -2.771046   -2.169528
    110          1           0       11.318130   -2.771391    2.169544
    111          1           0       10.625787   -4.161066    1.297166
    112          1           0       12.384892   -3.900553    1.298422
    113          1           0       13.745436    3.457898    1.298298
    114          1           0       14.811222    2.327802    2.169417
    115          1           0       15.504750    3.716921    1.297109
    116          1           0       13.745286    3.457926   -1.298469
    117          1           0       15.504596    3.716960   -1.297473
    118          1           0       14.810979    2.327861   -2.169743
    119          1           0        5.797089   -2.564139    0.000415
    120          1           0       20.364137    2.124602   -0.000495
    121         16           0        6.405881    1.044382    0.000323
    122          6           0        6.200119   -1.560814    0.000322
    123          6           0        5.415388   -0.428535    0.000319
    124          1           0       21.773823   -0.074497   -0.000543
 ---------------------------------------------------------------------

 The electronic state is 1-A.
 Alpha  occ. eigenvalues --  -88.47422 -88.46865 -88.39850 -88.39809 -88.39794
 Alpha  occ. eigenvalues --  -88.39754 -14.30374 -14.30333 -14.29962 -14.29581
 Alpha  occ. eigenvalues --  -10.20014 -10.19874 -10.19568 -10.19309 -10.17445
 Alpha  occ. eigenvalues --  -10.17431 -10.17391 -10.17281 -10.17237 -10.17232
 Alpha  occ. eigenvalues --  -10.16436 -10.16111 -10.16094 -10.16037 -10.15821
 Alpha  occ. eigenvalues --  -10.15612 -10.15475 -10.15459 -10.15314 -10.15055
 Alpha  occ. eigenvalues --  -10.14928 -10.14913 -10.14913 -10.14871 -10.14539
 Alpha  occ. eigenvalues --  -10.14518 -10.14505 -10.14481 -10.14222 -10.14196
 Alpha  occ. eigenvalues --  -10.14187 -10.14134 -10.14018 -10.14018 -10.14008
 Alpha  occ. eigenvalues --  -10.13977 -10.13969 -10.13962 -10.13952 -10.13929
 Alpha  occ. eigenvalues --  -10.13912 -10.13884 -10.13878 -10.13651 -10.13645
 Alpha  occ. eigenvalues --  -10.13643 -10.13625 -10.13615 -10.13613 -10.13596
 Alpha  occ. eigenvalues --  -10.13584 -10.13570 -10.13514 -10.13495 -10.13483
 Alpha  occ. eigenvalues --  -10.13433 -10.13358 -10.13341 -10.13320 -10.13303
 Alpha  occ. eigenvalues --  -10.11652 -10.11651 -10.11642 -10.11617 -10.11615
 Alpha  occ. eigenvalues --  -10.11606 -10.11604 -10.11568  -8.02086  -8.01574
 Alpha  occ. eigenvalues --   -7.94915  -7.94578  -7.94564  -7.94520  -5.98110
 Alpha  occ. eigenvalues --   -5.97587  -5.97498  -5.97106  -5.96972  -5.96608
 Alpha  occ. eigenvalues --   -5.90822  -5.90541  -5.90526  -5.90482  -5.90439
 Alpha  occ. eigenvalues --   -5.90132  -5.90118  -5.90073  -5.89887  -5.89551
 Alpha  occ. eigenvalues --   -5.89537  -5.89495  -1.04388  -1.03769  -0.91932
 Alpha  occ. eigenvalues --   -0.91238  -0.90794  -0.90677  -0.90297  -0.90088
 Alpha  occ. eigenvalues --   -0.89325  -0.88899  -0.88245  -0.87670  -0.87088
 Alpha  occ. eigenvalues --   -0.86734  -0.83606  -0.83177  -0.82024  -0.81492
 Alpha  occ. eigenvalues --   -0.80644  -0.80354  -0.79409  -0.78920  -0.78346
 Alpha  occ. eigenvalues --   -0.78210  -0.77961  -0.77563  -0.77108  -0.77038
 Alpha  occ. eigenvalues --   -0.76503  -0.76074  -0.74325  -0.73746  -0.73710
 Alpha  occ. eigenvalues --   -0.73327  -0.71671  -0.71563  -0.71370  -0.71317
 Alpha  occ. eigenvalues --   -0.70742  -0.69540  -0.69020  -0.69017  -0.69009
 Alpha  occ. eigenvalues --   -0.68968  -0.68192  -0.66977  -0.66414  -0.66086
 Alpha  occ. eigenvalues --   -0.64132  -0.63997  -0.63504  -0.63208  -0.62892
 Alpha  occ. eigenvalues --   -0.62478  -0.61363  -0.61284  -0.60234  -0.60040
 Alpha  occ. eigenvalues --   -0.58896  -0.58887  -0.58271  -0.57939  -0.57839
 Alpha  occ. eigenvalues --   -0.57526  -0.56806  -0.56315  -0.55040  -0.54860
 Alpha  occ. eigenvalues --   -0.54589  -0.53939  -0.52771  -0.52379  -0.52098
 Alpha  occ. eigenvalues --   -0.51907  -0.51810  -0.51617  -0.51070  -0.50785
 Alpha  occ. eigenvalues --   -0.50133  -0.50005  -0.49478  -0.49107  -0.48885
 Alpha  occ. eigenvalues --   -0.47929  -0.47207  -0.46769  -0.46617  -0.46614
 Alpha  occ. eigenvalues --   -0.46434  -0.46139  -0.45925  -0.45392  -0.45178
 Alpha  occ. eigenvalues --   -0.45084  -0.45036  -0.44885  -0.44776  -0.44498
 Alpha  occ. eigenvalues --   -0.44086  -0.44059  -0.43802  -0.43624  -0.43403
 Alpha  occ. eigenvalues --   -0.43320  -0.43293  -0.43195  -0.43141  -0.42410
 Alpha  occ. eigenvalues --   -0.42194  -0.42050  -0.41818  -0.41557  -0.41387
 Alpha  occ. eigenvalues --   -0.41353  -0.41139  -0.41093  -0.40736  -0.40643
 Alpha  occ. eigenvalues --   -0.40609  -0.40447  -0.40193  -0.40071  -0.39855
 Alpha  occ. eigenvalues --   -0.39485  -0.39479  -0.39444  -0.39293  -0.39271
 Alpha  occ. eigenvalues --   -0.39191  -0.38527  -0.38196  -0.38018  -0.37717
 Alpha  occ. eigenvalues --   -0.37357  -0.36888  -0.36819  -0.36663  -0.36588
 Alpha  occ. eigenvalues --   -0.36562  -0.36271  -0.35797  -0.35703  -0.35561
 Alpha  occ. eigenvalues --   -0.35404  -0.35237  -0.35163  -0.35064  -0.34875
 Alpha  occ. eigenvalues --   -0.34664  -0.34360  -0.34334  -0.33773  -0.33734
 Alpha  occ. eigenvalues --   -0.33423  -0.33007  -0.32902  -0.32766  -0.32479
 Alpha  occ. eigenvalues --   -0.32349  -0.32009  -0.32004  -0.31975  -0.31785
 Alpha  occ. eigenvalues --   -0.31738  -0.31554  -0.29322  -0.29241  -0.28897
 Alpha  occ. eigenvalues --   -0.28875  -0.28797  -0.28694  -0.28427  -0.28089
 Alpha  occ. eigenvalues --   -0.27668  -0.27393  -0.26184  -0.25023  -0.24731
 Alpha  occ. eigenvalues --   -0.24452  -0.23198  -0.22534  -0.22380  -0.22327
 Alpha  occ. eigenvalues --   -0.21910  -0.20929  -0.19570  -0.18428
 Alpha virt. eigenvalues --   -0.10454  -0.09591  -0.05689  -0.05275  -0.03700
 Alpha virt. eigenvalues --   -0.02456  -0.00984  -0.00969  -0.00761  -0.00462
 Alpha virt. eigenvalues --    0.00080   0.00148   0.00150   0.00232   0.00601

 Mulliken charges:
               1
     1  C    0.023928
     2  C    0.217602
     3  C   -0.196194
     4  N   -0.604986
     5  N   -0.582123
     6  S    0.605820
     7  H    0.202707
     8  H    0.197646
     9  C   -0.178751
    10  C    0.234183
    11  C   -0.155120
    12  H    0.212058
    13  C   -0.235127
    14  C   -0.180920
    15  S    0.488227
    16  C    0.134742
    17  C    0.034978
    18  C   -0.261708
    19  C    0.134660
    20  C    0.035079
    21  C   -0.261774
    22  C   -0.316973
    23  C    0.127965
    24  C    0.040985
    25  C   -0.317030
    26  C    0.128073
    27  C    0.040989
    28  C   -0.243542
    29  C    0.026440
    30  C   -0.245312
    31  C   -0.249781
    32  C   -0.243310
    33  C    0.026949
    34  C   -0.244659
    35  C   -0.249828
    36  C   -0.493768
    37  C   -0.493773
    38  C   -0.493784
    39  C   -0.493781
    40  H    0.176416
    41  H    0.176339
    42  H    0.177087
    43  H    0.189701
    44  H    0.176940
    45  H    0.189568
    46  H    0.186724
    47  H    0.185902
    48  H    0.206516
    49  H    0.206517
    50  H    0.185902
    51  H    0.186724
    52  H    0.186874
    53  H    0.206553
    54  H    0.185886
    55  H    0.186874
    56  H    0.185886
    57  H    0.206553
    58  H    0.188823
    59  H    0.188690
    60  S    0.489560
    61  C   -0.180317
    62  C   -0.235011
    63  C    0.025908
    64  C    0.236899
    65  C   -0.188971
    66  N   -0.608693
    67  N   -0.608812
    68  S    0.620259
    69  H    0.198669
    70  H    0.198659
    71  C   -0.188916
    72  C    0.236916
    73  C    0.025840
    74  C   -0.423342
    75  C   -0.173668
    76  S    0.406976
    77  C    0.134188
    78  C    0.035835
    79  C   -0.262672
    80  C    0.134668
    81  C    0.034666
    82  C   -0.261671
    83  C   -0.316953
    84  C    0.127930
    85  C    0.041139
    86  C   -0.316886
    87  C    0.127883
    88  C    0.038448
    89  C   -0.243336
    90  C    0.026873
    91  C   -0.244662
    92  C   -0.250013
    93  C   -0.245149
    94  C    0.021906
    95  C   -0.225108
    96  C   -0.244639
    97  C   -0.493728
    98  C   -0.493741
    99  C   -0.493863
   100  C   -0.493858
   101  H    0.176210
   102  H    0.175265
   103  H    0.178967
   104  H    0.189026
   105  H    0.176921
   106  H    0.189662
   107  H    0.186469
   108  H    0.185793
   109  H    0.206563
   110  H    0.206562
   111  H    0.185795
   112  H    0.186470
   113  H    0.186683
   114  H    0.206325
   115  H    0.186312
   116  H    0.186684
   117  H    0.186312
   118  H    0.206325
   119  H    0.188620
   120  H    0.194963
   121  S    0.488084
   122  C   -0.180895
   123  C   -0.235200
   124  H    0.221612
 Sum of Mulliken charges =  -0.00000

 Dipole moment (field-independent basis, Debye):
    X=              0.2387    Y=              0.6061    Z=             -0.0008  Tot=              0.6514
 Quadrupole moment (field-independent basis, Debye-Ang):
   XX=           -441.7112   YY=           -435.2031   ZZ=           -515.3026
   XY=            -25.2546   XZ=              0.0072   YZ=             -0.0019

 Normal termination of Gaussian 16 at Tue Oct 10 20:58:36 2023.
