 Gaussian 16, Revision A.03,
 Gaussian 16:  ES64L-G16RevA.03 25-Dec-2016

 -------------------
 #p opt b3lyp/3-21g*
 -------------------

 ----------------------------------------------
 Gaussian optimization calculation on oligomer6
 ----------------------------------------------
 Symbolic Z-matrix:
 Charge =  0 Multiplicity = 1

 SCF Done:  E(RB3LYP) =  -5200.42125331     A.U. after   17 cycles
 SCF Done:  E(RB3LYP) =  -5200.45825298     A.U. after   15 cycles
 SCF Done:  E(RB3LYP) =  -5200.47598222     A.U. after   15 cycles
 SCF Done:  E(RB3LYP) =  -5200.48285349     A.U. after   15 cycles
 SCF Done:  E(RB3LYP) =  -5200.48377911     A.U. after   14 cycles
 SCF Done:  E(RB3LYP) =  -5200.48405451     A.U. after   12 cycles
 SCF Done:  E(RB3LYP) =  -5200.48407466     A.U. after   10 cycles
 SCF Done:  E(RB3LYP) =  -5200.48408403     A.U. after   10 cycles
 SCF Done:  E(RB3LYP) =  -5200.48408564     A.U. after    9 cycles
 SCF Done:  E(RB3LYP) =  -5200.48408646     A.U. after    9 cycles
 SCF Done:  E(RB3LYP) =  -5200.48408689     A.U. after    9 cycles
 SCF Done:  E(RB3LYP) =  -5200.48408703     A.U. after    7 cycles
 SCF Done:  E(RB3LYP) =  -5200.48408706     A.U. after    7 cycles
 SCF Done:  E(RB3LYP) =  -5200.48408707     A.U. after    7 cycles
 Optimization completed.
    -- Stationary point found.

                         Standard orientation:
 ---------------------------------------------------------------------
 Center     Atomic      Atomic             Coordinates (Angstroms)
 Number     Number       Type             X           Y           Z
 ---------------------------------------------------------------------
      1          6           0       17.182365    0.745829   -0.000222
      2          6           0       17.936178   -0.474750   -0.000196
      3          6           0       17.926611    1.915940   -0.000390
      4          7           0       17.416528   -1.716266   -0.000042
      5          7           0       19.935222   -1.699393   -0.000351
      6         16           0       18.686395   -2.779149   -0.000154
      7          1           0       19.852667    2.886760   -0.000672
      8          1           0       17.415146    2.869537   -0.000387
      9          6           0       19.350236    1.926748   -0.000552
     10          6           0       19.390504   -0.460698   -0.000405
     11          6           0       20.090984    0.771325   -0.000590
     12          1           0       21.171789    0.774233   -0.000742
     13          6           0        0.441595   -0.144427    0.000237
     14          6           0        1.259608   -1.248398    0.000284
     15         16           0        1.386967    1.361916    0.000138
     16          6           0        7.372945   -0.889164    0.000222
     17          6           0        6.697092    0.355841    0.000153
     18          6           0        7.406947    1.563842    0.000060
     19          6           0        8.794210    1.507465    0.000044
     20          6           0        9.470187    0.262508    0.000117
     21          6           0        8.760265   -0.945414    0.000207
     22          6           0        9.794126    2.671360   -0.000054
     23          6           0       11.133802    1.922569   -0.000039
     24          6           0       10.917175    0.511799    0.000068
     25          6           0        6.372790   -2.052707    0.000298
     26          6           0        5.033555   -1.303490    0.000265
     27          6           0        5.250568    0.105699    0.000181
     28          6           0       12.409181    2.443619   -0.000116
     29          6           0       13.507670    1.551765   -0.000072
     30          6           0       13.277051    0.145924    0.000029
     31          6           0       11.982064   -0.382648    0.000090
     32          6           0        3.757113   -1.824744    0.000301
     33          6           0        2.657494   -0.936266    0.000257
     34          6           0        2.893251    0.469625    0.000188
     35          6           0        4.184583    1.001335    0.000144
     36          6           0        9.640139    3.533271    1.277621
     37          6           0        9.640064    3.533133   -1.277808
     38          6           0        6.526132   -2.914614    1.278126
     39          6           0        6.526106   -2.914747   -1.277449
     40          1           0        9.282414   -1.896289    0.000261
     41          1           0        6.885005    2.514896    0.000000
     42          1           0        3.581937   -2.895128    0.000366
     43          1           0        4.349673    2.072352    0.000092
     44          1           0       12.583291    3.514457   -0.000208
     45          1           0       11.817036   -1.453961    0.000156
     46          1           0        8.652107    4.007065    1.298493
     47          1           0       10.402583    4.320257    1.297237
     48          1           0        9.752359    2.910371    2.169497
     49          1           0        9.752237    2.910141   -2.169628
     50          1           0       10.402497    4.320123   -1.297555
     51          1           0        8.652026    4.006919   -1.298679
     52          1           0        7.513867   -3.388999   -1.298009
     53          1           0        6.414408   -2.291952   -2.169468
     54          1           0        5.763245   -3.701248   -1.296962
     55          1           0        7.513899   -3.388858    1.298716
     56          1           0        5.763280   -3.701119    1.297737
     57          1           0        6.414449   -2.291731    2.170085
     58          1           0       15.277957    2.867507   -0.000253
     59          1           0        0.858182   -2.250082    0.000293
     60         16           0       14.776367   -0.756569    0.000012
     61          6           0       14.905074    1.852612   -0.000174
     62          6           0       15.721636    0.745115   -0.000149
     63          6           0       -3.951622    0.065618    0.000282
     64          6           0       -3.272522   -1.195163    0.000145
     65          6           0       -3.124692    1.181260    0.000472
     66          7           0       -3.879634   -2.395243    0.000012
     67          7           0       -1.378556   -2.562081    0.000026
     68         16           0       -2.700792   -3.552318   -0.000093
     69          1           0       -1.163237    2.031177    0.000649
     70          1           0       -3.567244    2.168676    0.000634
     71          6           0       -1.715787    1.098790    0.000473
     72          6           0       -1.817405   -1.287136    0.000154
     73          6           0       -1.009872   -0.098383    0.000293
     74          6           0      -20.690516    0.340593   -0.000377
     75          6           0      -19.983999   -0.821332   -0.000404
     76         16           0      -19.673120    1.764932   -0.000261
     77          6           0      -13.847427   -0.888965   -0.000128
     78          6           0      -14.435287    0.399520   -0.000097
     79          6           0      -13.643675    1.554998   -0.000013
     80          6           0      -12.263264    1.402771    0.000043
     81          6           0      -11.675153    0.114325    0.000015
     82          6           0      -12.467259   -1.041378   -0.000070
     83          6           0      -11.185335    2.494759    0.000139
     84          6           0       -9.900544    1.655280    0.000149
     85          6           0      -10.214396    0.262822    0.000080
     86          6           0      -14.925892   -1.980521   -0.000234
     87          6           0      -16.210352   -1.140580   -0.000253
     88          6           0      -15.897395    0.249507   -0.000173
     89          6           0       -8.592353    2.086927    0.000211
     90          6           0       -7.557724    1.121226    0.000204
     91          6           0       -7.885521   -0.265554    0.000133
     92          6           0       -9.213661   -0.703164    0.000072
     93          6           0      -17.520405   -1.573693   -0.000333
     94          6           0      -18.555276   -0.613398   -0.000332
     95          6           0      -18.225658    0.772549   -0.000247
     96          6           0      -16.898798    1.214434   -0.000167
     97          6           0      -11.279173    3.365335    1.277814
     98          6           0      -11.279074    3.365473   -1.277448
     99          6           0      -14.832620   -2.851326    1.277351
    100          6           0      -14.832499   -2.851182   -1.277911
    101          1           0      -12.012319   -2.026213   -0.000089
    102          1           0      -14.098480    2.539925    0.000007
    103          1           0      -17.766065   -2.630340   -0.000396
    104          1           0      -16.661691    2.271956   -0.000103
    105          1           0       -8.344684    3.143163    0.000267
    106          1           0       -9.452527   -1.760463    0.000020
    107          1           0      -12.231999    3.906436    1.298687
    108          1           0      -10.464032    4.097628    1.297347
    109          1           0      -11.210372    2.736191    2.169713
    110          1           0      -11.210199    2.736426   -2.169411
    111          1           0      -10.463939    4.097773   -1.296837
    112          1           0      -12.231904    3.906569   -1.298338
    113          1           0      -13.880055   -3.392939   -1.298603
    114          1           0      -14.900696   -2.222008   -2.169839
    115          1           0      -15.648151   -3.582888   -1.297534
    116          1           0      -13.880172   -3.393080    1.298073
    117          1           0      -15.648267   -3.583038    1.296815
    118          1           0      -14.900904   -2.222254    2.169345
    119          1           0       -5.701851    2.311827    0.000289
    120          1           0      -20.441612   -1.801138   -0.000473
    121         16           0       -6.451989   -1.269792    0.000128
    122          6           0       -6.143940    1.325099    0.000254
    123          6           0       -5.404183    0.162961    0.000230
    124          1           0      -21.763956    0.451551   -0.000418
 ---------------------------------------------------------------------

 The electronic state is 1-A.
 Alpha  occ. eigenvalues --  -88.47341 -88.46902 -88.40135 -88.39835 -88.39809
 Alpha  occ. eigenvalues --  -88.39759 -14.30356 -14.30204 -14.29998 -14.29618
 Alpha  occ. eigenvalues --  -10.20120 -10.19928 -10.19606 -10.19347 -10.17441
 Alpha  occ. eigenvalues --  -10.17391 -10.17329 -10.17325 -10.17202 -10.17195
 Alpha  occ. eigenvalues --  -10.16831 -10.16420 -10.16096 -10.16042 -10.15806
 Alpha  occ. eigenvalues --  -10.15529 -10.15500 -10.15393 -10.15358 -10.15097
 Alpha  occ. eigenvalues --  -10.15005 -10.14995 -10.14883 -10.14854 -10.14653
 Alpha  occ. eigenvalues --  -10.14544 -10.14489 -10.14474 -10.14439 -10.14260
 Alpha  occ. eigenvalues --  -10.14215 -10.14163 -10.14136 -10.14115 -10.14106
 Alpha  occ. eigenvalues --  -10.13999 -10.13981 -10.13947 -10.13936 -10.13931
 Alpha  occ. eigenvalues --  -10.13926 -10.13849 -10.13765 -10.13755 -10.13745
 Alpha  occ. eigenvalues --  -10.13684 -10.13623 -10.13590 -10.13587 -10.13582
 Alpha  occ. eigenvalues --  -10.13563 -10.13554 -10.13552 -10.13477 -10.13459
 Alpha  occ. eigenvalues --  -10.13436 -10.13417 -10.13364 -10.13297 -10.13280
 Alpha  occ. eigenvalues --  -10.11733 -10.11697 -10.11683 -10.11647 -10.11618
 Alpha  occ. eigenvalues --  -10.11590 -10.11583 -10.11554  -8.02023  -8.01612
 Alpha  occ. eigenvalues --   -7.95039  -7.94900  -7.94575  -7.94524  -5.98047
 Alpha  occ. eigenvalues --   -5.97624  -5.97433  -5.97044  -5.97009  -5.96645
 Alpha  occ. eigenvalues --   -5.90993  -5.90806  -5.90608  -5.90536  -5.90486
 Alpha  occ. eigenvalues --   -5.90424  -5.90127  -5.90078  -5.89994  -5.89872
 Alpha  occ. eigenvalues --   -5.89550  -5.89497  -1.04329  -1.03807  -0.91824
 Alpha  occ. eigenvalues --   -0.91283  -0.90895  -0.90689  -0.90354  -0.90113
 Alpha  occ. eigenvalues --   -0.89370  -0.88924  -0.88267  -0.87707  -0.87101
 Alpha  occ. eigenvalues --   -0.86771  -0.83679  -0.83191  -0.82083  -0.81503
 Alpha  occ. eigenvalues --   -0.80703  -0.80359  -0.79479  -0.78923  -0.78352
 Alpha  occ. eigenvalues --   -0.78223  -0.77958  -0.77594  -0.77138  -0.77048
 Alpha  occ. eigenvalues --   -0.76570  -0.76149  -0.74350  -0.73838  -0.73687
 Alpha  occ. eigenvalues --   -0.73384  -0.71701  -0.71551  -0.71477  -0.71300
 Alpha  occ. eigenvalues --   -0.70813  -0.69577  -0.69100  -0.69051  -0.68984
 Alpha  occ. eigenvalues --   -0.68954  -0.68173  -0.66992  -0.66354  -0.66135
 Alpha  occ. eigenvalues --   -0.64154  -0.64036  -0.63576  -0.63238  -0.62836
 Alpha  occ. eigenvalues --   -0.62487  -0.61406  -0.61306  -0.60309  -0.59934
 Alpha  occ. eigenvalues --   -0.58982  -0.58861  -0.58231  -0.57897  -0.57840
 Alpha  occ. eigenvalues --   -0.57571  -0.56916  -0.56221  -0.55336  -0.54791
 Alpha  occ. eigenvalues --   -0.54622  -0.54172  -0.52602  -0.52380  -0.52101
 Alpha  occ. eigenvalues --   -0.51925  -0.51763  -0.51541  -0.51030  -0.50790
 Alpha  occ. eigenvalues --   -0.50111  -0.50017  -0.49570  -0.49093  -0.48860
 Alpha  occ. eigenvalues --   -0.47867  -0.47173  -0.46965  -0.46693  -0.46567
 Alpha  occ. eigenvalues --   -0.46354  -0.46178  -0.45845  -0.45419  -0.45270
 Alpha  occ. eigenvalues --   -0.45139  -0.45031  -0.44861  -0.44817  -0.44462
 Alpha  occ. eigenvalues --   -0.44172  -0.44034  -0.43915  -0.43659  -0.43401
 Alpha  occ. eigenvalues --   -0.43394  -0.43269  -0.43249  -0.43116  -0.42570
 Alpha  occ. eigenvalues --   -0.42314  -0.42027  -0.41732  -0.41544  -0.41484
 Alpha  occ. eigenvalues --   -0.41328  -0.41140  -0.40872  -0.40837  -0.40670
 Alpha  occ. eigenvalues --   -0.40638  -0.40305  -0.40187  -0.40178  -0.39812
 Alpha  occ. eigenvalues --   -0.39544  -0.39519  -0.39416  -0.39376  -0.39350
 Alpha  occ. eigenvalues --   -0.39172  -0.38540  -0.38407  -0.38054  -0.37745
 Alpha  occ. eigenvalues --   -0.37374  -0.37189  -0.36907  -0.36721  -0.36661
 Alpha  occ. eigenvalues --   -0.36552  -0.36282  -0.35934  -0.35781  -0.35586
 Alpha  occ. eigenvalues --   -0.35383  -0.35240  -0.35127  -0.34875  -0.34715
 Alpha  occ. eigenvalues --   -0.34687  -0.34433  -0.34310  -0.33858  -0.33712
 Alpha  occ. eigenvalues --   -0.33400  -0.33094  -0.32829  -0.32764  -0.32450
 Alpha  occ. eigenvalues --   -0.32333  -0.32091  -0.31978  -0.31959  -0.31855
 Alpha  occ. eigenvalues --   -0.31851  -0.31828  -0.29488  -0.29237  -0.29120
 Alpha  occ. eigenvalues --   -0.28871  -0.28836  -0.28733  -0.28368  -0.28035
 Alpha  occ. eigenvalues --   -0.27722  -0.27462  -0.26221  -0.25084  -0.24736
 Alpha  occ. eigenvalues --   -0.24489  -0.23246  -0.22598  -0.22463  -0.22363
 Alpha  occ. eigenvalues --   -0.21946  -0.21017  -0.19603  -0.18518
 Alpha virt. eigenvalues --   -0.10369  -0.09630  -0.05754  -0.05300  -0.03719
 Alpha virt. eigenvalues --   -0.02482  -0.01108  -0.00945  -0.00699  -0.00399
 Alpha virt. eigenvalues --   -0.00083   0.00117   0.00132   0.00279   0.00565

 Mulliken charges:
               1
     1  C    0.023938
     2  C    0.217626
     3  C   -0.196131
     4  N   -0.605041
     5  N   -0.581997
     6  S    0.606231
     7  H    0.202791
     8  H    0.197660
     9  C   -0.178755
    10  C    0.234204
    11  C   -0.155000
    12  H    0.212212
    13  C   -0.233536
    14  C   -0.192182
    15  S    0.425407
    16  C    0.135187
    17  C    0.035115
    18  C   -0.261813
    19  C    0.134747
    20  C    0.035211
    21  C   -0.261595
    22  C   -0.317006
    23  C    0.127973
    24  C    0.040988
    25  C   -0.317370
    26  C    0.127039
    27  C    0.041322
    28  C   -0.243524
    29  C    0.026499
    30  C   -0.245322
    31  C   -0.249628
    32  C   -0.239616
    33  C    0.023053
    34  C   -0.227495
    35  C   -0.250504
    36  C   -0.493743
    37  C   -0.493746
    38  C   -0.494046
    39  C   -0.494045
    40  H    0.176989
    41  H    0.175641
    42  H    0.183036
    43  H    0.189598
    44  H    0.176959
    45  H    0.189859
    46  H    0.186277
    47  H    0.186092
    48  H    0.206687
    49  H    0.206687
    50  H    0.186093
    51  H    0.186277
    52  H    0.187128
    53  H    0.206487
    54  H    0.187504
    55  H    0.187128
    56  H    0.187505
    57  H    0.206486
    58  H    0.188861
    59  H    0.233229
    60  S    0.490096
    61  C   -0.180323
    62  C   -0.234955
    63  C    0.024465
    64  C    0.233516
    65  C   -0.188547
    66  N   -0.606156
    67  N   -0.615853
    68  S    0.613820
    69  H    0.213981
    70  H    0.199893
    71  C   -0.207600
    72  C    0.246033
    73  C    0.035269
    74  C   -0.423349
    75  C   -0.173688
    76  S    0.406931
    77  C    0.134154
    78  C    0.035818
    79  C   -0.262669
    80  C    0.134643
    81  C    0.034652
    82  C   -0.261687
    83  C   -0.316937
    84  C    0.127870
    85  C    0.041189
    86  C   -0.316871
    87  C    0.127854
    88  C    0.038465
    89  C   -0.243298
    90  C    0.026621
    91  C   -0.244848
    92  C   -0.250097
    93  C   -0.245166
    94  C    0.021913
    95  C   -0.225130
    96  C   -0.244638
    97  C   -0.493737
    98  C   -0.493739
    99  C   -0.493850
   100  C   -0.493848
   101  H    0.176112
   102  H    0.175260
   103  H    0.178915
   104  H    0.189039
   105  H    0.177124
   106  H    0.189412
   107  H    0.186404
   108  H    0.185931
   109  H    0.206521
   110  H    0.206521
   111  H    0.185932
   112  H    0.186404
   113  H    0.186641
   114  H    0.206330
   115  H    0.186258
   116  H    0.186641
   117  H    0.186259
   118  H    0.206330
   119  H    0.189220
   120  H    0.194919
   121  S    0.487753
   122  C   -0.180220
   123  C   -0.235099
   124  H    0.221566
 Sum of Mulliken charges =  -0.00000

 Dipole moment (field-independent basis, Debye):
    X=              0.2892    Y=              1.9149    Z=             -0.0002  Tot=              1.9367
 Quadrupole moment (field-independent basis, Debye-Ang):
   XX=           -437.1605   YY=           -436.9535   ZZ=           -515.3389
   XY=             45.2508   XZ=             -0.0045   YZ=              0.0001

 Normal termination of Gaussian 16 at Tue Oct 10 20:44:45 2023.
