 Gaussian 16, Revision A.03,
 Gaussian 16:  ES64L-G16RevA.03 25-Dec-2016

 ------------------------------
 #p opt b3lyp/6-31g* pop=chelpg
 ------------------------------

 ----------------------------------------------
 Gaussian optimization calculation on oligomer4
 ----------------------------------------------
 Symbolic Z-matrix:
 Charge =  0 Multiplicity = 1

 SCF Done:  E(RB3LYP) =  -5227.19755512     A.U. after   20 cycles
 SCF Done:  E(RB3LYP) =  -5227.19989493     A.U. after   12 cycles
 SCF Done:  E(RB3LYP) =  -5227.20035803     A.U. after   12 cycles
 SCF Done:  E(RB3LYP) =  -5227.20038481     A.U. after    9 cycles
 SCF Done:  E(RB3LYP) =  -5227.20038594     A.U. after    8 cycles
 SCF Done:  E(RB3LYP) =  -5227.20038614     A.U. after    7 cycles
 SCF Done:  E(RB3LYP) =  -5227.20038617     A.U. after    6 cycles
 Optimization completed.
    -- Stationary point found.

                         Standard orientation:
 ---------------------------------------------------------------------
 Center     Atomic      Atomic             Coordinates (Angstroms)
 Number     Number       Type             X           Y           Z
 ---------------------------------------------------------------------
      1          6           0       17.119124   -0.345963   -0.000228
      2          6           0       17.906866   -1.560027   -0.000267
      3          6           0       17.845142    0.834955   -0.000265
      4          7           0       17.440850   -2.813081   -0.000185
      5          7           0       19.954687   -2.695425   -0.000304
      6         16           0       18.749262   -3.810146   -0.000480
      7          1           0       19.742810    1.865297   -0.000338
      8          1           0       17.312540    1.781314   -0.000217
      9          6           0       19.268117    0.888215   -0.000332
     10          6           0       19.361758   -1.495503   -0.000331
     11          6           0       20.039093   -0.244654   -0.000360
     12          1           0       21.122966   -0.217688   -0.000390
     13          6           0        0.411743    1.024591    0.000392
     14          6           0        1.269601    2.096864    0.000260
     15         16           0        1.313780   -0.511995    0.000554
     16          6           0        7.359216    1.551260    0.000150
     17          6           0        6.649123    0.329203    0.000315
     18          6           0        7.324217   -0.898814    0.000414
     19          6           0        8.713304   -0.885499    0.000341
     20          6           0        9.423312    0.336527    0.000174
     21          6           0        8.748279    1.564532    0.000079
     22          6           0        9.673017   -2.075446    0.000413
     23          6           0       11.028683   -1.368060    0.000258
     24          6           0       10.856952    0.043363    0.000121
     25          6           0        6.399515    2.741204    0.000065
     26          6           0        5.043836    2.033827    0.000189
     27          6           0        5.215681    0.622326    0.000341
     28          6           0       12.290292   -1.928630    0.000237
     29          6           0       13.417214   -1.076230    0.000077
     30          6           0       13.222437    0.330557   -0.000054
     31          6           0       11.950650    0.906608   -0.000035
     32          6           0        3.782380    2.594411    0.000161
     33          6           0        2.655039    1.742036    0.000282
     34          6           0        2.850184    0.334876    0.000439
     35          6           0        4.121779   -0.240955    0.000471
     36          6           0        9.491240   -2.943648    1.265814
     37          6           0        9.491093   -2.943921   -1.264779
     38          6           0        6.581418    3.609649    1.265270
     39          6           0        6.581322    3.609396   -1.265326
     40          1           0        9.300296    2.501863   -0.000051
     41          1           0        6.772215   -1.836142    0.000540
     42          1           0        3.639627    3.672550    0.000042
     43          1           0        4.250685   -1.319648    0.000587
     44          1           0       12.433111   -3.006756    0.000339
     45          1           0       11.821750    1.985304   -0.000139
     46          1           0        8.491676   -3.393246    1.286957
     47          1           0       10.225863   -3.756954    1.285987
     48          1           0        9.617021   -2.346984    2.174865
     49          1           0        9.616767   -2.347454   -2.173973
     50          1           0       10.225713   -3.757233   -1.284862
     51          1           0        8.491525   -3.393523   -1.285708
     52          1           0        7.580890    4.059010   -1.286468
     53          1           0        6.455552    3.012713   -2.174363
     54          1           0        5.846674    4.422686   -1.285534
     55          1           0        7.580987    4.059266    1.286246
     56          1           0        5.846771    4.422944    1.285369
     57          1           0        6.455714    3.013148    2.174435
     58          1           0       15.159790   -2.452350    0.000099
     59          1           0        0.914209    3.118416    0.000140
     60         16           0       14.759097    1.177170   -0.000243
     61          6           0       14.803688   -1.430842    0.000023
     62          6           0       15.659921   -0.359152   -0.000140
     63          6           0       -4.005694    0.885827    0.000335
     64          6           0       -3.304856    2.148894    0.000034
     65          6           0       -3.183335   -0.231509    0.000661
     66          7           0       -3.876662    3.356061   -0.000270
     67          7           0       -1.373297    3.458332   -0.000217
     68         16           0       -2.668319    4.467105   -0.000576
     69          1           0       -1.242427   -1.121812    0.000967
     70          1           0       -3.633790   -1.219534    0.000891
     71          6           0       -1.771959   -0.173793    0.000693
     72          6           0       -1.844790    2.208540    0.000067
     73          6           0       -1.043480    1.006835    0.000394
     74          6           0      -20.520460   -1.821685   -0.000746
     75          6           0      -19.614073   -2.833313   -0.000072
     76         16           0      -19.778509   -0.234860   -0.001412
     77          6           0      -13.576934   -1.794039    0.000491
     78          6           0      -14.383837   -0.634035   -0.000237
     79          6           0      -13.810759    0.644228   -0.000783
     80          6           0      -12.424844    0.743960   -0.000599
     81          6           0      -11.617912   -0.415985    0.000121
     82          6           0      -12.191268   -1.694615    0.000675
     83          6           0      -11.565183    2.008091   -0.001094
     84          6           0      -10.156371    1.413488   -0.000585
     85          6           0      -10.212818   -0.007357    0.000127
     86          6           0      -14.436978   -3.058115    0.000981
     87          6           0      -15.845884   -2.463444    0.000425
     88          6           0      -15.790152   -1.043480   -0.000281
     89          6           0       -8.944842    2.074942   -0.000755
     90          6           0       -7.751740    1.317230   -0.000219
     91          6           0       -7.831687   -0.101057    0.000484
     92          6           0       -9.052256   -0.778583    0.000672
     93          6           0      -17.057685   -3.126360    0.000540
     94          6           0      -18.250590   -2.371712   -0.000057
     95          6           0      -18.172536   -0.953168   -0.000758
     96          6           0      -16.950353   -0.274568   -0.000878
     97          6           0      -11.816914    2.859605    1.263670
     98          6           0      -11.816525    2.858358   -1.266772
     99          6           0      -14.185504   -3.908335    1.266626
    100          6           0      -14.185046   -3.909627   -1.263703
    101          1           0      -11.565041   -2.584083    0.001230
    102          1           0      -14.437003    1.533667   -0.001341
    103          1           0      -17.108282   -4.212976    0.001079
    104          1           0      -16.911480    0.811220   -0.001419
    105          1           0       -8.890527    3.161145   -0.001301
    106          1           0       -9.092820   -1.864196    0.001209
    107          1           0      -12.849505    3.227095    1.284304
    108          1           0      -11.150296    3.729577    1.283491
    109          1           0      -11.643673    2.275601    2.173135
    110          1           0      -11.643002    2.273459   -2.175608
    111          1           0      -11.149903    3.728312   -1.287243
    112          1           0      -12.849110    3.225826   -1.288086
    113          1           0      -13.152539   -4.277442   -1.284391
    114          1           0      -14.358145   -3.325527   -2.173135
    115          1           0      -14.851827   -4.779525   -1.283712
    116          1           0      -13.153003   -4.276125    1.288064
    117          1           0      -14.852291   -4.778213    1.287279
    118          1           0      -14.358936   -3.323306    2.175397
    119          1           0       -6.128983    2.830846   -0.000797
    120          1           0      -19.889232   -3.882887    0.000408
    121         16           0       -6.231366   -0.820050    0.001034
    122          6           0       -6.399854    1.783704   -0.000303
    123          6           0       -5.457394    0.784915    0.000292
    124          1           0      -21.599827   -1.899822   -0.000902
 ---------------------------------------------------------------------

 The electronic state is 1-A.
 Alpha  occ. eigenvalues --  -88.97582 -88.97301 -88.90349 -88.90296 -88.90266
 Alpha  occ. eigenvalues --  -88.90220 -14.37567 -14.37565 -14.37357 -14.37235
 Alpha  occ. eigenvalues --  -10.25307 -10.25273 -10.25013 -10.24624 -10.23118
 Alpha  occ. eigenvalues --  -10.23094 -10.23070 -10.22831 -10.22646 -10.22643
 Alpha  occ. eigenvalues --  -10.22490 -10.22480 -10.22422 -10.22173 -10.21931
 Alpha  occ. eigenvalues --  -10.21212 -10.21118 -10.21091 -10.21067 -10.21011
 Alpha  occ. eigenvalues --  -10.21007 -10.20914 -10.20887 -10.20832 -10.20158
 Alpha  occ. eigenvalues --  -10.20158 -10.20089 -10.20067 -10.20026 -10.20012
 Alpha  occ. eigenvalues --  -10.19928 -10.19899 -10.19890 -10.19856 -10.19812
 Alpha  occ. eigenvalues --  -10.19653 -10.19652 -10.19581 -10.19544 -10.19533
 Alpha  occ. eigenvalues --  -10.19521 -10.19494 -10.19491 -10.19467 -10.19372
 Alpha  occ. eigenvalues --  -10.19369 -10.19366 -10.19344 -10.19319 -10.19301
 Alpha  occ. eigenvalues --  -10.19298 -10.19291 -10.19264 -10.19261 -10.19235
 Alpha  occ. eigenvalues --  -10.19214 -10.19175 -10.19157 -10.19134 -10.19081
 Alpha  occ. eigenvalues --  -10.18204 -10.18203 -10.18195 -10.18194 -10.18121
 Alpha  occ. eigenvalues --  -10.18121 -10.18118 -10.18117  -8.03149  -8.02879
 Alpha  occ. eigenvalues --   -7.96461  -7.96410  -7.96381  -7.96334  -5.99701
 Alpha  occ. eigenvalues --   -5.99423  -5.99116  -5.98863  -5.98840  -5.98603
 Alpha  occ. eigenvalues --   -5.92893  -5.92854  -5.92825  -5.92779  -5.92533
 Alpha  occ. eigenvalues --   -5.92496  -5.92467  -5.92421  -5.92100  -5.92023
 Alpha  occ. eigenvalues --   -5.91992  -5.91946  -1.02447  -1.02069  -0.90353
 Alpha  occ. eigenvalues --   -0.90189  -0.89983  -0.89756  -0.89444  -0.89267
 Alpha  occ. eigenvalues --   -0.88494  -0.88096  -0.87327  -0.86750  -0.86153
 Alpha  occ. eigenvalues --   -0.85803  -0.82662  -0.82170  -0.81240  -0.80730
 Alpha  occ. eigenvalues --   -0.80023  -0.79733  -0.78764  -0.78230  -0.77425
 Alpha  occ. eigenvalues --   -0.77114  -0.76918  -0.76683  -0.76419  -0.76322
 Alpha  occ. eigenvalues --   -0.75847  -0.75365  -0.73525  -0.73223  -0.73095
 Alpha  occ. eigenvalues --   -0.72528  -0.70934  -0.70909  -0.70798  -0.70702
 Alpha  occ. eigenvalues --   -0.69981  -0.68905  -0.68895  -0.68820  -0.68815
 Alpha  occ. eigenvalues --   -0.68776  -0.67029  -0.65838  -0.65199  -0.64963
 Alpha  occ. eigenvalues --   -0.63237  -0.63044  -0.62469  -0.62198  -0.61763
 Alpha  occ. eigenvalues --   -0.61525  -0.60604  -0.60345  -0.59476  -0.59198
 Alpha  occ. eigenvalues --   -0.58078  -0.57975  -0.57289  -0.57079  -0.56762
 Alpha  occ. eigenvalues --   -0.56396  -0.56020  -0.55149  -0.54508  -0.54022
 Alpha  occ. eigenvalues --   -0.53798  -0.53565  -0.51512  -0.51407  -0.50811
 Alpha  occ. eigenvalues --   -0.50646  -0.50094  -0.49976  -0.49931  -0.49797
 Alpha  occ. eigenvalues --   -0.49018  -0.48696  -0.48323  -0.48272  -0.48039
 Alpha  occ. eigenvalues --   -0.46818  -0.46579  -0.46292  -0.46155  -0.45825
 Alpha  occ. eigenvalues --   -0.45630  -0.45420  -0.45085  -0.44606  -0.44417
 Alpha  occ. eigenvalues --   -0.44369  -0.44256  -0.43966  -0.43759  -0.43666
 Alpha  occ. eigenvalues --   -0.43554  -0.43489  -0.43162  -0.42985  -0.42956
 Alpha  occ. eigenvalues --   -0.42851  -0.42746  -0.42625  -0.42416  -0.41809
 Alpha  occ. eigenvalues --   -0.41502  -0.41271  -0.40773  -0.40624  -0.40549
 Alpha  occ. eigenvalues --   -0.40236  -0.40212  -0.40198  -0.40154  -0.39907
 Alpha  occ. eigenvalues --   -0.39700  -0.39350  -0.39319  -0.39197  -0.39165
 Alpha  occ. eigenvalues --   -0.39151  -0.38963  -0.38908  -0.38791  -0.38530
 Alpha  occ. eigenvalues --   -0.38409  -0.38066  -0.37771  -0.37527  -0.37267
 Alpha  occ. eigenvalues --   -0.36858  -0.36608  -0.36376  -0.36374  -0.36216
 Alpha  occ. eigenvalues --   -0.35916  -0.35801  -0.35344  -0.35277  -0.35092
 Alpha  occ. eigenvalues --   -0.34919  -0.34639  -0.34287  -0.34239  -0.34156
 Alpha  occ. eigenvalues --   -0.34082  -0.33987  -0.33730  -0.33232  -0.33105
 Alpha  occ. eigenvalues --   -0.33006  -0.32717  -0.32340  -0.32230  -0.32118
 Alpha  occ. eigenvalues --   -0.31991  -0.31846  -0.31762  -0.31711  -0.31596
 Alpha  occ. eigenvalues --   -0.31504  -0.31486  -0.30236  -0.30143  -0.29202
 Alpha  occ. eigenvalues --   -0.28961  -0.28382  -0.28263  -0.27927  -0.27148
 Alpha  occ. eigenvalues --   -0.27083  -0.26817  -0.25861  -0.24691  -0.24397
 Alpha  occ. eigenvalues --   -0.24172  -0.22892  -0.22352  -0.22310  -0.22243
 Alpha  occ. eigenvalues --   -0.21849  -0.20817  -0.19367  -0.18292
 Alpha virt. eigenvalues --   -0.10071  -0.09372  -0.05848  -0.05456  -0.03748
 Alpha virt. eigenvalues --   -0.02474  -0.01538  -0.01376  -0.00706  -0.00436
 Alpha virt. eigenvalues --   -0.00279   0.00259   0.00558   0.00629   0.00670

 Mulliken charges:
               1
     1  C    0.223258
     2  C    0.198866
     3  C   -0.254370
     4  N   -0.584623
     5  N   -0.552326
     6  S    0.572746
     7  H    0.145715
     8  H    0.159936
     9  C   -0.137450
    10  C    0.246672
    11  C   -0.132237
    12  H    0.155502
    13  C   -0.233637
    14  C   -0.174387
    15  S    0.219693
    16  C    0.095287
    17  C    0.085028
    18  C   -0.272178
    19  C    0.095291
    20  C    0.084978
    21  C   -0.272216
    22  C   -0.064673
    23  C    0.092427
    24  C    0.092774
    25  C   -0.064621
    26  C    0.092551
    27  C    0.092557
    28  C   -0.259512
    29  C    0.156962
    30  C   -0.136830
    31  C   -0.251027
    32  C   -0.259717
    33  C    0.157786
    34  C   -0.136143
    35  C   -0.251223
    36  C   -0.436773
    37  C   -0.436773
    38  C   -0.436740
    39  C   -0.436741
    40  H    0.127104
    41  H    0.127327
    42  H    0.130598
    43  H    0.141315
    44  H    0.131113
    45  H    0.141071
    46  H    0.144478
    47  H    0.145437
    48  H    0.158273
    49  H    0.158274
    50  H    0.145437
    51  H    0.144478
    52  H    0.144314
    53  H    0.158349
    54  H    0.145295
    55  H    0.144314
    56  H    0.145295
    57  H    0.158349
    58  H    0.185000
    59  H    0.183224
    60  S    0.218322
    61  C   -0.172980
    62  C   -0.232463
    63  C    0.232396
    64  C    0.200259
    65  C   -0.254618
    66  N   -0.583527
    67  N   -0.583859
    68  S    0.572753
    69  H    0.161631
    70  H    0.161685
    71  C   -0.254394
    72  C    0.200378
    73  C    0.232025
    74  C   -0.352888
    75  C   -0.126253
    76  S    0.226628
    77  C    0.094623
    78  C    0.086060
    79  C   -0.273169
    80  C    0.095320
    81  C    0.084419
    82  C   -0.272202
    83  C   -0.064526
    84  C    0.092378
    85  C    0.092937
    86  C   -0.064515
    87  C    0.096610
    88  C    0.088540
    89  C   -0.259651
    90  C    0.157584
    91  C   -0.136070
    92  C   -0.251630
    93  C   -0.264716
    94  C    0.159628
    95  C   -0.161544
    96  C   -0.231477
    97  C   -0.436691
    98  C   -0.436692
    99  C   -0.436483
   100  C   -0.436484
   101  H    0.126510
   102  H    0.126580
   103  H    0.126556
   104  H    0.139951
   105  H    0.130389
   106  H    0.140991
   107  H    0.144421
   108  H    0.144931
   109  H    0.158166
   110  H    0.158166
   111  H    0.144931
   112  H    0.144421
   113  H    0.144069
   114  H    0.158130
   115  H    0.143993
   116  H    0.144069
   117  H    0.143993
   118  H    0.158130
   119  H    0.183107
   120  H    0.143135
   121  S    0.219127
   122  C   -0.174203
   123  C   -0.233969
   124  H    0.174175
 Sum of Mulliken charges =  -0.00000

 Dipole moment (field-independent basis, Debye):
    X=             -0.9795    Y=              0.2939    Z=             -0.0003  Tot=              1.0227
 Quadrupole moment (field-independent basis, Debye-Ang):
   XX=           -455.8332   YY=           -444.0646   ZZ=           -501.4153
   XY=             34.1086   XZ=             -0.0073   YZ=             -0.0147

 ESP charges:
               1
     1  C    0.024496
     2  C    0.191725
     3  C   -0.175908
     4  N   -0.338412
     5  N   -0.432728
     6  S    0.304893
     7  H    0.102632
     8  H    0.157878
     9  C   -0.054352
    10  C    0.382267
    11  C   -0.261585
    12  H    0.141052
    13  C    0.035913
    14  C   -0.161863
    15  S   -0.176013
    16  C   -0.019849
    17  C    0.055843
    18  C   -0.203721
    19  C   -0.024379
    20  C    0.020866
    21  C   -0.178860
    22  C    0.414918
    23  C   -0.021384
    24  C    0.007375
    25  C    0.328778
    26  C    0.002306
    27  C   -0.007903
    28  C   -0.256272
    29  C    0.115267
    30  C    0.109487
    31  C   -0.228286
    32  C   -0.240884
    33  C    0.110593
    34  C    0.098669
    35  C   -0.210060
    36  C   -0.190785
    37  C   -0.190977
    38  C   -0.181118
    39  C   -0.182143
    40  H    0.088089
    41  H    0.091396
    42  H    0.145098
    43  H    0.179862
    44  H    0.149372
    45  H    0.186690
    46  H    0.043770
    47  H    0.033347
    48  H    0.006219
    49  H    0.006200
    50  H    0.033583
    51  H    0.043687
    52  H    0.048055
    53  H    0.008099
    54  H    0.037226
    55  H    0.047800
    56  H    0.037044
    57  H    0.007704
    58  H    0.090500
    59  H    0.089354
    60  S   -0.182186
    61  C   -0.158272
    62  C    0.045785
    63  C    0.008717
    64  C    0.219588
    65  C   -0.153228
    66  N   -0.315443
    67  N   -0.315361
    68  S    0.264486
    69  H    0.160314
    70  H    0.155951
    71  C   -0.167641
    72  C    0.217757
    73  C    0.024079
    74  C   -0.109611
    75  C   -0.268082
    76  S   -0.077865
    77  C   -0.084657
    78  C    0.091839
    79  C   -0.236307
    80  C    0.023082
    81  C    0.008264
    82  C   -0.156701
    83  C    0.329581
    84  C   -0.005372
    85  C    0.003798
    86  C    0.393967
    87  C    0.000432
    88  C   -0.031798
    89  C   -0.258491
    90  C    0.156234
    91  C    0.074956
    92  C   -0.205455
    93  C   -0.313568
    94  C    0.262607
    95  C   -0.009619
    96  C   -0.169859
    97  C   -0.174777
    98  C   -0.172629
    99  C   -0.176185
   100  C   -0.176501
   101  H    0.087863
   102  H    0.106462
   103  H    0.149843
   104  H    0.163634
   105  H    0.148076
   106  H    0.177764
   107  H    0.042271
   108  H    0.035499
   109  H    0.006889
   110  H    0.006166
   111  H    0.035118
   112  H    0.041690
   113  H    0.040897
   114  H    0.007106
   115  H    0.031110
   116  H    0.040797
   117  H    0.031123
   118  H    0.006962
   119  H    0.097533
   120  H    0.133824
   121  S   -0.171427
   122  C   -0.195318
   123  C    0.049449
   124  H    0.164267
 Sum of ESP charges =   0.00000

 Normal termination of Gaussian 16 at Wed Oct 11 00:49:27 2023.
